# vtk DataFile Version 4.2
vtk output
ASCII
DATASET UNSTRUCTURED_GRID
POINTS 3162 double
-0.2194 0.4515 -0.265 -0.2544 0.4582 -0.2305 -0.2897 0.4596 -0.176 
-0.3024 0.4521 -0.2139 -0.2693 0.4535 -0.1378 -0.3277 0.454 -0.1452 
-0.3296 0.4556 -0.1074 -0.0219 0.4497 -0.1032 -0.2841 0.453 -0.1043 
-0.2874 0.4542 -0.0671 -0.3292 0.448 -0.0487 -0.1256 0.4458 0.0232 
-0.0929 0.4512 0.0747 -0.2509 0.4293 -0.2926 -0.1656 0.4432 -0.2633 
-0.2743 0.4433 -0.2621 -0.3056 0.4334 -0.2523 -0.2043 0.4523 -0.2307 
0.0056 0.4321 -0.1412 0.0463 0.4317 -0.1066 0.0137 0.4494 -0.0974 
-0.0176 0.4359 -0.0669 0.0702 0.4397 -0.0653 -0.3471 0.4441 -0.0772 
0.0663 0.4386 -0.0281 -0.0711 0.4354 -0.0311 -0.2656 0.4412 -0.0288 
-0.0913 0.4459 0.0168 -0.0932 0.437 0.1208 0.0109 0.4315 0.2617 
-0.0116 0.4441 0.3094 -0.0376 0.4488 0.3422 -0.0743 0.439 0.332 
-0.1546 0.4078 -0.3317 -0.1642 0.4311 -0.3038 -0.2145 0.4354 -0.2954 
0.0174 0.413 -0.2987 -0.1218 0.4297 -0.2824 -0.2903 0.4127 -0.2923 
-0.0151 0.4251 -0.2624 0.0298 0.4237 -0.2454 -0.0616 0.4264 -0.2351 
-0.173 0.4255 -0.227 -0.3483 0.4297 -0.2018 0.0104 0.4246 -0.2111 
-0.0217 0.4282 -0.1746 -0.0341 0.4281 -0.2058 -0.235 0.4466 -0.1872 
-0.3594 0.4308 -0.1641 -0.2542 0.4223 -0.1281 -0.3615 0.4358 -0.1179 
-0.0459 0.4294 -0.1311 0.018 0.4301 -0.0603 -0.2652 0.4211 -0.0765 
-0.1108 0.4387 -0.0198 0.1138 0.4257 -0.023 -0.3372 0.4212 0.0014 
0.0758 0.4211 -0.0004 -0.2047 0.4237 0.0245 -0.2992 0.4419 0.0068 
-0.0725 0.4183 0.0572 -0.2558 0.4372 0.0203 -0.1706 0.4248 0.0495 
-0.2011 0.4095 0.0669 -0.1406 0.431 0.066 -0.051 0.4253 0.1462 
-0.0649 0.4252 0.1947 0.0075 0.4162 0.2028 -0.0286 0.4388 0.2169 
-0.0547 0.4177 0.2289 -0.0501 0.4376 0.3027 -0.11 0.4248 0.3526 
-0.0198 0.4245 0.3562 -0.0697 0.4379 0.3699 0.0815 0.4123 -0.3244 
0.0531 0.4187 -0.2947 -0.1884 0.4106 -0.3298 0.0994 0.4025 -0.2942 
-0.1206 0.4104 -0.321 -0.0303 0.4018 -0.3027 -0.079 0.4186 -0.2914 
-0.3315 0.3828 -0.2863 -0.0748 0.4077 -0.1929 0.0318 0.4145 -0.1658 
-0.2493 0.3967 -0.1661 -0.3813 0.4117 -0.1326 -0.3782 0.4134 -0.0963 
-0.0729 0.4248 -0.0888 0.0447 0.4122 -0.0386 -0.1439 0.4213 -0.0025 
-0.3715 0.3887 -0.003 -0.0848 0.3935 0.0052 0.1235 0.4258 0.029 
0.1001 0.405 0.0415 -0.2947 0.4226 0.0345 -0.1206 0.4291 0.0951 
-0.1149 0.4077 0.1272 -0.0909 0.412 0.1681 -0.0193 0.4118 0.1666 
0.0395 0.4071 0.2207 -0.0886 0.3848 0.2035 -0.0326 0.431 0.2652 
0.0504 0.4095 0.2667 0.0251 0.4103 0.3231 -0.0844 0.3905 0.3292 
-0.1006 0.4115 0.3841 0.1095 0.3955 -0.3372 -0.2338 0.4016 -0.3285 
-0.2691 0.3912 -0.3246 -0.3089 0.3625 -0.3175 0.0568 0.4021 -0.249 
-0.3438 0.4121 -0.2425 -0.1308 0.3994 -0.2389 -0.0999 0.3967 -0.2208 
-0.3693 0.4008 -0.2167 -0.2138 0.4096 -0.2 -0.3896 0.3951 -0.1659 
0.084 0.4018 -0.0868 0.0164 0.3918 -0.058 -0.0585 0.398 -0.049 
-0.0944 0.4094 -0.0594 0.1374 0.3812 -0.0327 -0.224 0.4032 -0.0031 
-0.3693 0.4106 -0.0428 0.1608 0.388 0.0473 0.1375 0.4063 0.0715 
-0.2464 0.4057 0.0646 -0.2902 0.3918 0.0652 -0.0523 0.417 0.1057 
0.0365 0.3862 0.1735 -0.1239 0.3932 0.172 0.1021 0.3942 0.199 
0.0775 0.3978 0.2239 -0.0285 0.3826 0.2361 -0.1739 0.3899 0.2967 
-0.0359 0.3939 0.2959 -0.1422 0.3999 0.3276 -0.0025 0.3935 0.3628 
-0.0592 0.4002 0.3846 -0.1367 0.4034 0.3756 -0.1528 0.3766 -0.3555 
-0.2082 0.3699 -0.3583 -0.0875 0.3798 -0.3396 -0.0475 0.3702 -0.3306 
0.0041 0.3566 -0.3177 -0.362 0.377 -0.2574 -0.1586 0.3711 -0.2509 
0.0543 0.3658 -0.2287 -0.1986 0.384 -0.2317 0.0406 0.392 -0.2046 
-0.2532 0.3756 -0.1947 -0.0667 0.3955 -0.1559 -0.4024 0.383 -0.131 
-0.2741 0.384 -0.1345 -0.0687 0.3883 -0.1223 -0.3982 0.3873 -0.0853 
-0.2611 0.3954 -0.0377 -0.395 0.3841 -0.0487 -0.1128 0.3964 -0.0257 
0.1488 0.393 0.0022 -0.2287 0.3583 0.0099 -0.3574 0.3773 0.0351 
-0.3339 0.3719 0.0625 -0.0827 0.3592 0.0567 0.1105 0.3866 0.0877 
0.1591 0.3721 0.1174 -0.158 0.3949 0.0865 -0.0335 0.3722 0.1197 
0.1263 0.3888 0.1199 0.0947 0.3752 0.1364 0.0044 0.3685 0.1413 
-0.1341 0.3786 0.1435 0.1144 0.3905 0.1611 0.0747 0.38 0.1647 
-0.1366 0.3796 0.2101 0.1215 0.3793 0.2321 -0.1761 0.3851 0.217 
0.1014 0.3767 0.2753 -0.1573 0.372 0.2525 -0.2014 0.3763 0.263 
0.0678 0.3926 0.2949 -0.1978 0.3685 0.3143 0.0006 0.3583 0.3713 
-0.1847 0.3426 -0.3747 -0.2791 0.3452 -0.3467 0.0523 0.3731 -0.3328 
0.1309 0.3757 -0.3005 -0.355 0.3477 -0.2841 0.0832 0.368 -0.2617 
-0.0969 0.3529 -0.2266 -0.387 0.3455 -0.2432 -0.4048 0.3631 -0.1914 
0.0457 0.3568 -0.172 -0.3052 0.3567 -0.1311 -0.0566 0.3747 -0.0894 
0.1101 0.3813 -0.0678 -0.0236 0.3785 -0.0707 0.0451 0.366 -0.0403 
-0.2974 0.3645 -0.069 -0.4127 0.3568 -0.0388 0.0666 0.3776 -0.0113 
-0.1173 0.3672 -0.0064 -0.2797 0.3571 -0.0191 -0.1501 0.3748 -0.0004 
-0.1837 0.3756 0.0092 -0.3889 0.3614 0.0162 0.0952 0.3643 0.0631 
-0.0633 0.3576 0.0852 -0.1857 0.376 0.0927 -0.2353 0.372 0.0949 
0.0551 0.352 0.1318 0.1418 0.38 0.1776 -0.1778 0.3581 0.1874 
0.1374 0.3515 0.2599 -0.0093 0.3715 0.2887 -0.1474 0.3698 0.2934 
0.063 0.3591 0.3364 -0.1034 0.3608 0.3232 -0.1766 0.3759 0.3507 
0.0347 0.3546 0.3549 -0.144 0.3627 0.3781 -0.0328 0.3483 0.3832 
-0.0665 0.3554 0.3892 -0.0978 0.3726 0.3892 -0.1004 0.3396 -0.3696 
-0.233 0.3307 -0.3719 -0.253 0.3689 -0.3472 0.2015 0.3537 -0.331 
0.1316 0.342 -0.3517 -0.0573 0.3364 -0.3533 0.2594 0.3428 -0.3083 
0.1684 0.3646 -0.3246 0.3058 0.3393 -0.2353 0.3291 0.3439 -0.1858 
-0.0766 0.358 -0.197 -0.0538 0.3395 -0.1539 0.3393 0.3469 -0.1403 
0.0551 0.379 -0.1379 -0.4212 0.3557 -0.1373 -0.4197 0.3599 -0.0972 
0.3633 0.3473 -0.1036 -0.3254 0.3323 -0.0911 -0.006 0.3433 -0.0864 
0.3598 0.3426 -0.0501 0.1257 0.3471 -0.0632 0.0217 0.3372 -0.0658 
0.324 0.3484 -0.0746 0.3114 0.3485 -0.0326 0.2212 0.3484 0.0015 
0.2689 0.3478 -0.0093 0.1696 0.3651 0.0042 -0.4099 0.3333 0.0135 
0.0781 0.3588 0.0153 0.1835 0.3586 0.0557 -0.3834 0.332 0.057 
0.1909 0.3421 0.098 -0.0159 0.3411 0.1107 -0.1804 0.3452 0.123 
-0.2826 0.3628 0.0968 -0.1495 0.3622 0.118 -0.1635 0.3441 0.1519 
-0.0159 0.3515 0.2111 -0.0556 0.3517 0.198 -0.2017 0.3469 0.2424 
0.1519 0.353 0.2151 0.0163 0.3571 0.2543 0.0941 0.3544 0.3133 
-0.0508 0.3553 0.3222 -0.1811 0.3222 0.3269 -0.1547 0.33 -0.3809 
0.2305 0.3234 -0.3483 0.0848 0.3473 -0.3418 0.0428 0.3335 -0.3234 
0.3025 0.3216 -0.3252 0.3306 0.3338 -0.2773 0.291 0.3437 -0.2741 
0.2041 0.3436 -0.2973 0.2575 0.3231 -0.2658 -0.2288 0.3364 -0.2509 
0.3451 0.3398 -0.238 0.081 0.3183 -0.2346 -0.2638 0.3397 -0.2247 
-0.0846 0.3153 -0.2296 -0.2957 0.3496 -0.1723 0.0639 0.3344 -0.1389 
0.3724 0.343 -0.1604 -0.3236 0.3187 -0.1472 0.0794 0.3631 -0.1062 
-0.0368 0.338 -0.1184 0.3924 0.3366 -0.1174 0.1014 0.344 -0.0889 
0.1482 0.3296 -0.0387 -0.4299 0.3261 -0.0492 0.2788 0.3343 -0.0553 
0.0507 0.3313 -0.0155 0.3499 0.3227 0.028 0.3456 0.3368 -0.0049 
0.3882 0.3138 0.0015 0.3025 0.343 0.0153 0.0561 0.3156 0.0222 
-0.1002 0.3445 0.0288 0.3209 0.3277 0.0451 0.2609 0.3429 0.0412 
0.0693 0.3245 0.0514 0.2727 0.3231 0.0882 0.2226 0.3437 0.0597 
0.0795 0.3394 0.0931 0.028 0.3357 0.1172 -0.3292 0.3426 0.0958 
-0.226 0.3363 0.1333 0.1627 0.3517 0.1685 0.0173 0.339 0.2153 
0.0616 0.3209 0.2374 -0.1382 0.3478 0.2346 0.0304 0.3327 0.2799 
-0.1973 0.3247 0.2875 0.0732 0.3293 0.3471 -0.1237 0.3013 -0.386 
0.178 0.3223 -0.3578 -0.026 0.3317 -0.336 -0.3047 0.3239 -0.3406 
0.0741 0.3123 -0.3341 0.3459 0.3037 -0.3196 0.1564 0.3356 -0.2835 
-0.1579 0.3231 -0.2711 -0.1953 0.3297 -0.2683 0.3711 0.3131 -0.2774 
0.1147 0.3241 -0.2645 -0.1121 0.332 -0.2475 0.3881 0.3149 -0.2468 
0.3796 0.3341 -0.1996 0.3044 0.3056 -0.2099 0.0633 0.3213 -0.2017 
0.065 0.3138 -0.1663 -0.0652 0.3203 -0.1971 0.3142 0.3281 -0.1222 
0.0838 0.3152 -0.1172 0.4241 0.3135 -0.0997 0.1083 0.3118 -0.0795 
0.396 0.3309 -0.082 -0.3149 0.3251 -0.0391 0.0257 0.2955 -0.0382 
0.2486 0.3094 -0.0224 0.1931 0.31 -0.0096 -0.2924 0.3147 0.0026 
-0.1454 0.3351 0.0155 -0.2032 0.3239 0.0294 0.3649 0.2995 0.0562 
-0.0843 0.3139 0.0577 0.0033 0.3145 0.0875 0.244 0.3162 0.1208 
0.2067 0.3225 0.1457 -0.2671 0.3288 0.1336 -0.1919 0.3232 0.1511 
-0.091 0.3315 0.1964 0.1989 0.3164 0.2027 0.0422 0.3198 0.2048 
0.1775 0.3243 0.2433 0.0741 0.303 0.2663 -0.1941 0.3154 0.2329 
0.1699 0.3159 0.2749 0.1378 0.3199 0.3086 -0.012 0.3339 0.3118 
0.1039 0.3135 0.3411 -0.15 0.3153 0.3594 0.0102 0.3171 0.3718 
-0.1072 0.3271 0.3819 -0.0642 0.3163 0.3867 -0.0918 0.2862 -0.3783 
-0.2201 0.2992 -0.3803 0.265 0.3019 -0.3534 -0.0541 0.2815 -0.3665 
0.305 0.2859 -0.3527 0.1164 0.2959 -0.3509 -0.0131 0.2974 -0.3402 
0.3764 0.2896 -0.3138 -0.3677 0.2984 -0.2975 0.2155 0.308 -0.2826 
0.283 0.286 -0.2585 -0.4203 0.3088 -0.2149 0.4137 0.3047 -0.2261 
0.4282 0.3022 -0.1934 0.3188 0.3043 -0.1592 -0.0442 0.3052 -0.1675 
-0.4306 0.3199 -0.1694 0.4504 0.2849 -0.1445 0.4138 0.3216 -0.1494 
-0.4358 0.318 -0.105 0.2983 0.3238 -0.0864 -0.3381 0.2818 -0.0735 
0.4104 0.315 -0.0498 0.1282 0.2911 -0.039 0.2835 0.3002 -0.0476 
-0.3199 0.2932 -0.0268 0.1551 0.3019 -0.0195 -0.4313 0.2995 -0.0153 
0.2021 0.29 0.0225 -0.1647 0.3044 0.0357 -0.2536 0.3155 0.0258 
-0.4116 0.2967 0.0368 0.3347 0.3057 0.0761 0.048 0.3192 0.092 
-0.0306 0.2997 0.0695 -0.3664 0.2975 0.0973 -0.3135 0.3144 0.1289 
0.2393 0.2988 0.1728 0.0669 0.2948 0.1808 0.0054 0.3088 0.184 
-0.0395 0.3138 0.1828 -0.2256 0.3016 0.1637 -0.0829 0.2963 0.1898 
0.0943 0.3019 0.2187 -0.1249 0.3065 0.2393 -0.1299 0.3302 0.2835 
-0.0861 0.3147 0.3184 0.1333 0.2836 0.341 0.047 0.3042 0.3667 
-0.2753 0.2968 -0.3631 -0.3401 0.3141 -0.3162 0.4097 0.283 -0.2844 
-0.1803 0.2856 -0.2764 -0.0977 0.2897 -0.2501 -0.131 0.2954 -0.2675 
-0.4005 0.2998 -0.2556 0.107 0.2779 -0.263 -0.267 0.2873 -0.2363 
-0.0574 0.2791 -0.2099 -0.2945 0.318 -0.1999 -0.3366 0.289 -0.1219 
0.09 0.2707 -0.1494 -0.4448 0.2912 -0.1359 0.0991 0.2771 -0.1052 
0.0046 0.3024 -0.0867 0.429 0.2897 -0.0286 0.2802 0.2794 -0.0011 
0.2432 0.2821 0.0222 0.1657 0.2855 0.0138 0.4036 0.2837 0.0268 
0.0236 0.2904 0.0401 -0.1686 0.2769 0.0546 -0.2096 0.2868 0.0487 
-0.1125 0.2931 0.0481 -0.395 0.285 0.0704 -0.3412 0.2784 0.1314 
0.3099 0.2849 0.1292 0.1081 0.2692 0.1491 -0.2875 0.3013 0.1505 
[...]
POINT_DATA 3162
SCALARS bou_tag float
LOOKUP_TABLE default
1 1 1 1 1 1 1 1 1 
1 1 1 1 0 1 0 0 1 
1 1 1 1 1 1 1 1 1 
1 1 1 1 1 1 0 1 0 
1 1 0 1 1 1 1 0 1 
1 1 1 0 1 1 1 1 1 
1 1 1 1 1 1 1 1 1 
1 1 1 1 1 1 0 1 1 
1 1 1 1 0 1 1 1 1 
0 1 1 1 0 0 1 1 1 
0 1 1 1 1 1 1 1 1 
1 0 1 1 1 0 1 1 0 
0 0 1 0 1 1 0 1 0 
1 1 1 1 1 1 0 1 1 
1 1 1 1 1 1 1 0 1 
0 1 1 1 1 0 0 0 0 
1 0 0 1 0 1 0 1 0 
0 1 0 1 0 1 1 0 0 
0 0 1 1 1 1 1 1 1 
1 1 1 1 1 1 1 1 1 
1 1 0 0 0 1 1 0 1 
0 0 0 1 0 0 1 1 1 
0 0 1 0 0 1 1 0 1 
0 1 1 1 1 1 1 0 0 
1 0 1 0 1 0 0 1 0 
0 0 1 1 0 1 1 1 1 
0 0 1 1 0 0 1 0 0 
1 1 0 1 1 1 1 1 0 
1 1 0 1 0 1 0 1 1 
0 0 1 1 0 1 0 1 0 
1 1 0 1 1 1 1 1 0 
1 1 0 0 0 1 1 0 1 
0 1 1 1 0 1 0 1 1 
1 1 0 0 1 1 0 1 1 
1 0 0 1 1 0 0 0 0 
1 0 0 1 0 0 0 1 1 
0 0 1 1 0 1 1 0 1 
1 0 1 1 1 0 1 0 0 
1 1 0 0 0 1 0 0 1 
1 0 1 0 1 0 1 0 1 
1 1 0 0 1 0 0 0 0 
0 1 0 0 0 0 1 0 0 
0 0 1 1 0 0 0 1 1 
0 0 0 1 0 0 0 0 0 
0 0 0 0 1 0 0 0 0 
1 0 0 0 0 0 0 0 0 
0 0 0 0 0 1 0 0 0 
0 0 0 0 0 0 0 0 0 
0 1 0 0 0 1 0 0 0 
0 0 0 1 0 0 0 0 0 
1 1 0 0 0 0 0 0 0 
0 0 0 0 0 0 0 0 0 
0 0 0 0 0 0 0 0 0 
0 0 0 1 0 0 0 0 0 
1 0 0 0 0 0 0 0 1 
0 0 0 0 0 0 0 0 0 
0 0 0 1 0 0 1 0 1 
1 0 0 1 0 0 0 0 0 
0 0 0 0 0 0 0 0 0 
0 0 0 0 0 0 0 0 1 
0 1 0 0 0 0 0 0 0 
1 0 0 0 0 0 0 0 0 
0 0 0 0 0 0 1 0 0 
0 0 0 0 0 0 0 0 0 
0 0 0 0 0 0 0 0 0 
0 0 1 0 0 0 0 0 0 
0 0 0 0 0 1 1 0 0 
0 0 0 0 0 0 0 0 0 
0 0 0 0 0 0 0 0 0 
0 0 0 0 0 0 0 0 0 
0 0 0 0 0 0 0 0 0 
0 0 0 0 0 0 0 0 0 
0 0 0 0 0 0 0 0 0 
0 0 0 0 0 0 0 0 0 
0 0 0 0 0 0 0 0 0 
0 0 0 0 0 0 0 0 0 
0 0 0 0 0 0 0 0 0 
0 0 0 0 0 0 0 0 0 
0 0 0 0 0 0 0 0 0 
0 0 0 0 0 0 0 0 0 
0 0 0 0 0 0 0 0 0 
0 0 0 0 0 0 0 0 0 
0 0 0 0 0 0 0 0 0 
0 0 0 0 0 0 0 0 0 
0 0 0 0 0 0 0 0 0 
0 0 0 0 0 0 0 0 0 
0 0 0 0 0 0 0 0 0 
0 0 0 0 0 0 0 0 0 
0 0 0 0 0 0 0 0 0 
0 0 0 0 0 0 0 0 0 
0 0 0 0 0 0 0 0 0 
0 0 0 0 0 0 0 0 0 
0 0 0 0 0 0 0 0 0 
0 0 0 0 0 0 0 0 0 
0 0 0 0 0 0 0 0 0 
0 0 0 0 0 0 0 0 0 
0 0 0 0 0 0 0 0 0 
0 0 0 0 0 0 0 0 0 
0 0 0 0 0 0 0 0 0 
0 0 0 0 0 0 0 0 0 
0 0 0 0 0 0 0 0 0 
0 0 0 0 0 0 0 0 0 
0 0 0 0 0 0 0 0 0 
0 0 0 0 0 0 0 0 0 
0 0 0 0 0 0 0 0 0 
0 0 0 0 0 0 0 0 0 
0 0 0 0 0 0 0 0 0 
0 0 0 0 0 0 0 0 0 
0 0 0 0 0 0 0 0 0 
0 0 0 0 0 0 0 0 0 
0 0 0 0 0 0 0 0 0 
0 0 0 0 0 0 0 0 0 
0 0 0 0 0 0 0 0 0 
0 0 0 0 0 0 0 0 0 
0 0 0 0 0 0 0 0 0 
0 0 0 0 0 0 0 0 0 
0 0 0 0 0 0 0 0 0 
0 0 0 0 0 0 0 0 0 
0 0 0 0 0 0 0 0 0 
0 0 0 0 0 0 0 0 0 
0 0 0 0 0 0 0 0 0 
0 0 0 0 0 0 0 0 0 
0 0 0 0 0 0 0 0 0 
0 0 0 0 0 0 0 0 0 
0 0 0 0 0 0 0 0 0 
0 0 0 0 0 0 0 0 0 
0 0 0 0 0 0 0 0 0 
0 0 0 0 0 0 0 0 0 
0 0 0 0 0 0 0 0 0 
0 0 0 0 0 0 0 0 0 
0 0 0 0 0 0 0 0 0 
0 0 0 0 0 0 0 0 0 
0 0 0 0 0 0 0 0 0 
0 0 0 0 0 0 0 0 0 
0 0 0 0 0 0 0 0 0 
0 0 0 0 0 0 0 0 0 
0 0 0 0 0 0 0 0 0 
0 0 0 0 0 0 0 0 0 
0 0 0 0 0 0 0 0 0 
0 0 0 0 0 0 0 0 0 
0 0 0 0 0 0 0 0 0 
0 0 0 0 0 0 0 0 0 
0 0 0 0 0 0 0 0 0 
0 0 0 0 0 0 0 0 0 
0 0 0 0 0 0 0 0 0 
0 0 0 0 0 0 0 0 0 
0 0 0 0 0 0 0 0 0 
0 0 0 0 0 0 0 0 0 
0 0 0 0 0 0 0 0 0 
0 0 0 0 0 0 0 0 0 
0 0 0 0 0 0 0 0 0 
0 0 0 0 0 0 0 0 0 
0 0 0 0 0 0 0 0 0 
0 0 0 0 0 0 0 0 0 
0 0 0 0 0 0 0 0 0 
0 0 0 0 0 0 0 0 0 
0 0 0 0 0 0 0 0 0 
0 0 0 0 0 0 0 0 0 
0 0 0 0 0 0 0 0 0 
0 0 0 0 0 0 0 0 0 
0 0 0 0 0 0 0 0 0 
0 0 0 0 0 0 0 0 0 
0 0 0 0 0 0 0 0 0 
0 0 0 0 0 0 0 0 0 
0 0 0 0 0 0 0 0 0 
0 0 0 0 0 0 0 0 0 
0 0 0 0 0 0 0 0 0 
0 0 0 0 0 0 0 0 0 
0 0 0 0 0 0 0 0 0 
0 0 0 0 0 0 0 0 0 
0 0 0 0 0 0 0 0 0 
0 0 0 0 0 0 0 0 0 
0 0 0 0 0 0 0 0 0 
0 0 0 0 0 0 0 0 0 
0 0 0 0 0 0 0 0 0 
0 0 0 0 0 0 0 0 0 
0 0 0 0 0 0 0 0 0 
0 0 0 0 0 0 0 0 0 
0 0 0 0 0 0 0 0 0 
0 0 0 0 0 0 0 0 0 
0 0 0 0 0 0 0 0 0 
0 0 0 0 0 0 0 0 0 
0 0 0 0 0 0 0 0 0 
0 0 0 0 0 0 0 0 0 
0 0 0 0 0 0 0 0 0 
0 0 0 0 0 0 0 0 0 
0 0 0 0 0 0 0 0 0 
0 0 0 0 0 0 0 0 0 
0 0 0 0 0 0 0 0 0 
0 0 0 0 0 0 0 0 0 
0 0 0 0 0 0 0 0 0 
0 0 0 0 0 0 0 0 0 
0 0 0 0 0 0 0 0 0 
0 0 0 0 0 0 0 0 0 
0 0 0 0 0 0 0 0 0 
0 0 0 0 0 0 0 0 0 
0 0 0 0 0 0 0 0 0 
0 0 0 0 0 0 0 0 0 
0 0 0 0 0 0 0 0 0 
0 0 0 0 0 0 0 0 0 
0 0 0 0 0 0 0 0 0 
0 0 0 0 0 0 0 0 0 
0 0 0 0 0 0 0 0 0 
0 0 0 0 0 0 0 0 0 
0 0 0 0 0 0 0 0 0 
0 0 0 0 0 0 0 0 0 
0 0 0 0 0 0 0 0 0 
0 0 0 0 0 0 0 0 0 
0 0 0 0 0 0 0 0 0 
0 0 0 0 0 0 0 0 0 
0 0 0 0 0 0 0 0 0 
0 0 0 0 0 0 0 0 0 
0 0 0 0 0 0 0 0 0 
0 0 0 0 0 0 0 0 0 
0 0 0 0 0 0 0 0 0 
0 0 0 0 0 0 0 0 0 
0 0 0 0 0 0 0 0 0 
0 0 0 0 0 0 0 0 0 
0 0 0 0 0 0 0 0 0 
0 0 0 0 0 0 0 0 0 
0 0 0 0 0 0 0 0 0 
0 0 0 0 0 0 0 0 0 
0 0 0 1 0 0 0 0 0 
0 0 0 0 0 1 0 0 0 
0 0 0 0 0 0 0 0 0 
0 0 0 0 0 0 1 0 0 
0 0 0 0 0 0 1 0 0 
0 0 0 1 0 0 0 0 0 
0 0 0 0 1 0 0 0 0 
1 0 0 0 0 1 0 0 0 
0 0 0 0 0 0 0 0 1 
0 0 0 0 0 1 0 0 0 
0 0 0 0 0 0 0 0 0 
0 1 0 0 0 0 0 0 0 
0 0 1 0 0 0 0 0 0 
0 0 0 0 0 0 0 0 0 
0 1 0 0 0 0 0 0 0 
0 1 0 0 0 0 0 0 0 
1 0 0 0 0 0 0 0 0 
0 0 0 0 0 0 0 0 0 
0 0 0 0 0 0 0 0 0 
0 0 0 0 0 0 0 0 0 
0 0 0 0 0 0 0 0 0 
0 0 0 0 0 0 0 0 0 
0 0 0 0 0 0 0 0 0 
0 0 0 0 0 0 0 0 0 
0 0 0 0 0 0 0 0 0 
0 0 0 0 0 0 0 0 0 
0 0 0 0 0 0 0 0 0 
0 0 0 0 0 0 0 0 0 
0 0 0 0 0 0 0 0 0 
0 0 0 0 0 0 0 0 0 
0 0 0 0 0 0 0 0 0 
0 0 0 0 0 0 0 0 0 
0 0 0 0 0 0 0 0 0 
0 0 0 0 0 0 0 0 0 
0 0 0 0 0 0 0 0 0 
0 0 0 0 0 0 0 0 0 
0 0 0 0 0 0 0 0 0 
0 0 0 0 0 0 0 0 0 
0 0 0 0 0 0 0 0 0 
0 0 0 0 0 0 0 0 0 
0 0 0 0 0 0 0 0 0 
0 0 0 0 0 0 0 0 0 
0 0 0 0 0 0 0 0 0 
0 0 0 0 0 0 0 0 0 
0 0 0 0 0 0 0 0 0 
0 0 0 0 0 0 0 0 0 
0 0 0 0 0 0 0 0 0 
0 0 0 0 0 0 0 0 0 
0 0 0 0 0 0 0 0 0 
0 0 0 0 0 0 0 0 0 
0 0 0 0 0 0 0 0 0 
0 0 0 0 0 0 0 0 0 
0 0 0 0 0 0 0 0 0 
0 0 0 0 0 0 0 0 0 
0 0 0 0 0 0 0 0 0 
0 0 0 0 0 0 0 0 0 
0 0 0 0 0 0 0 0 0 
0 0 0 0 0 0 0 0 0 
0 0 0 0 0 0 0 0 0 
0 0 0 0 0 0 0 0 0 
0 0 0 0 0 0 0 0 0 
0 0 0 0 0 0 0 0 0 
0 0 0 0 0 0 0 0 0 
0 0 0 0 0 0 0 0 0 
0 0 0 0 0 0 0 0 0 
0 0 0 0 0 0 0 0 0 
0 0 0 0 0 0 0 0 0 
0 0 0 0 0 0 0 0 0 
0 0 0 0 0 0 0 0 0 
0 0 0 0 0 0 0 0 0 
0 0 0 0 0 0 0 0 0 
0 0 0 0 0 0 0 0 0 
0 0 0 0 0 0 0 0 0 
0 0 0 0 0 0 0 0 0 
0 0 0 0 0 0 0 0 0 
0 0 0 0 0 0 0 0 0 
0 0 0 0 0 0 0 0 0 
0 0 0 0 0 0 0 0 0 
0 0 0 0 0 0 0 0 0 
0 0 0 0 0 0 0 0 0 
0 0 0 0 0 0 0 0 0 
0 0 0 0 0 0 0 0 0 
0 0 0 0 0 0 0 0 0 
0 0 0 0 0 0 0 0 0 
0 0 0 0 0 0 0 0 0 
0 0 0 0 0 0 0 0 0 
0 0 0 0 0 0 0 0 0 
0 0 0 0 0 0 0 0 0 
0 0 0 0 0 0 0 0 0 
0 0 0 0 0 0 0 0 0 
0 0 0 0 0 0 0 0 0 
0 0 0 0 0 0 0 0 0 
0 0 0 0 0 0 0 0 0 
0 0 0 0 0 0 0 0 0 
0 0 0 0 0 0 0 0 0 
0 0 0 0 0 0 0 0 0 
0 0 0 0 0 0 0 0 0 
0 0 0 0 0 0 0 0 0 
0 0 0 0 0 0 0 0 0 
0 0 0 0 0 0 0 0 0 
0 0 0 0 0 0 0 0 0 
0 0 0 0 0 0 0 0 0 
0 0 0 0 0 0 0 0 0 
0 0 0 0 0 0 0 0 0 
0 0 0 0 0 0 0 0 0 
0 0 0 0 0 0 0 0 0 
0 0 0 0 0 0 0 0 0 
0 0 0 0 0 0 0 0 0 
0 0 0 0 0 0 0 0 0 
0 0 0 0 0 0 0 0 0 
0 0 0 0 0 0 0 0 0 
0 0 0 0 0 0 0 0 0 
0 0 0 0 0 0 0 0 0 
0 0 0 0 0 0 0 0 0 
0 0 0 0 0 0 0 0 0 
0 0 0 0 0 0 0 0 0 
0 0 0 0 0 0 0 0 0 
0 0 0 0 0 0 0 0 0 
0 0 0 0 0 0 0 0 0 
0 0 0 0 0 0 0 0 0 
0 0 0 0 0 0 0 0 0 
0 0 0 0 0 0 0 0 0 
0 0 0 0 0 0 0 0 0 
0 0 0 0 0 0 0 0 0 
0 0 0 0 0 0 0 0 0 
0 0 0 0 0 0 0 0 0 
0 0 0 0 0 0 0 0 0 
0 0 0 0 0 0 0 0 0 
0 0 0 0 0 0 0 0 0 
0 0 0 
METADATA
INFORMATION 0

